;;
;; Generated by CHARMM-GUI FF-Converter
;;
;; Correspondance:
;; jul316@lehigh.edu or wonpil@lehigh.edu
;;
;; GROMACS topology file for LIG
;;


[ moleculetype ]
; name	nrexcl
LIG	     3

[ atoms ]
; nr	type	resnr	residu	atom	cgnr	charge	mass
     1      CG321   1101      LIG     C9      1    -0.195000     7.9790   ; qtot -0.195
     2     CG2R61   1101      LIG    C13      2    -0.017000    12.0110   ; qtot -0.212
     3       HGA2   1101      LIG    H11      3     0.090000     3.0240   ; qtot -0.122
     4       HGA2   1101      LIG    H12      4     0.090000     3.0240   ; qtot -0.032
     5     CG2R61   1101      LIG    C15      5    -0.398000    12.0110   ; qtot -0.430
     6     CG2R61   1101      LIG     C7      6    -0.204000     9.9950   ; qtot -0.634
     7      HGR61   1101      LIG     H9      7     0.210000     3.0240   ; qtot -0.424
     8     CG2R61   1101      LIG    C11      8     0.039000    12.0110   ; qtot -0.385
     9     CG2R61   1101      LIG     C3      9    -0.110000     9.9950   ; qtot -0.495
    10      HGR61   1101      LIG     H5     10     0.115000     3.0240   ; qtot -0.380
    11     CG2R61   1101      LIG     C5     11    -0.111000     9.9950   ; qtot -0.491
    12      HGR61   1101      LIG     H7     12     0.115000     3.0240   ; qtot -0.376
    13      NG311   1101      LIG     N1     13    -0.482000    11.9910   ; qtot -0.858
    14      CG321   1101      LIG     C1     14    -0.010000     7.9790   ; qtot -0.868
    15     HGPAM1   1101      LIG    H15     15     0.378000     3.0240   ; qtot -0.490
    16       HGA2   1101      LIG     H1     16     0.090000     3.0240   ; qtot -0.400
    17       HGA2   1101      LIG     H2     17     0.090000     3.0240   ; qtot -0.310
    18      SG311   1101      LIG     S1     18    -0.273000    30.0440   ; qtot -0.583
    19       HGP3   1101      LIG    H17     19     0.160000     3.0240   ; qtot -0.423
    20      SG3O1   1101      LIG     S3     20     1.373000    32.0600   ; qtot  0.950
    21      OG2P1   1101      LIG     O2     21    -0.650000    15.9994   ; qtot  0.300
    22      OG2P1   1101      LIG     O5     22    -0.650000    15.9994   ; qtot -0.350
    23      OG2P1   1101      LIG     O1     23    -0.650000    15.9994   ; qtot -1.000
    24      CG321   1101      LIG    C10     24    -0.195000     7.9790   ; qtot -1.195
    25     CG2R61   1101      LIG    C14     25    -0.017000    12.0110   ; qtot -1.212
    26       HGA2   1101      LIG    H13     26     0.090000     3.0240   ; qtot -1.122
    27       HGA2   1101      LIG    H14     27     0.090000     3.0240   ; qtot -1.032
    28     CG2R61   1101      LIG     C6     28    -0.111000     9.9950   ; qtot -1.143
    29     CG2R61   1101      LIG     C4     29    -0.110000     9.9950   ; qtot -1.253
    30      HGR61   1101      LIG     H8     30     0.115000     3.0240   ; qtot -1.138
    31      HGR61   1101      LIG     H6     31     0.115000     3.0240   ; qtot -1.023
    32     CG2R61   1101      LIG    C12     32     0.039000    12.0110   ; qtot -0.984
    33     CG2R61   1101      LIG     C8     33    -0.204000     9.9950   ; qtot -1.188
    34      HGR61   1101      LIG    H10     34     0.210000     3.0240   ; qtot -0.978
    35     CG2R61   1101      LIG    C16     35    -0.398000    12.0110   ; qtot -1.376
    36      SG3O1   1101      LIG     S4     36     1.373000    32.0600   ; qtot -0.003
    37      OG2P1   1101      LIG     O3     37    -0.650000    15.9994   ; qtot -0.653
    38      OG2P1   1101      LIG     O4     38    -0.650000    15.9994   ; qtot -1.303
    39      OG2P1   1101      LIG     O6     39    -0.650000    15.9994   ; qtot -1.953
    40      NG311   1101      LIG     N2     40    -0.482000    11.9910   ; qtot -2.435
    41      CG321   1101      LIG     C2     41    -0.010000     7.9790   ; qtot -2.445
    42     HGPAM1   1101      LIG    H16     42     0.378000     3.0240   ; qtot -2.067
    43       HGA2   1101      LIG     H3     43     0.090000     3.0240   ; qtot -1.977
    44       HGA2   1101      LIG     H4     44     0.090000     3.0240   ; qtot -1.887
    45      SG311   1101      LIG     S2     45    -0.273000    30.0440   ; qtot -2.160
    46       HGP3   1101      LIG    H18     46     0.160000     3.0240   ; qtot -2.000

[ bonds ]
; ai	aj	funct	b0	Kb
    1     2     1
    1     3     1
    1     4     1
   24     1     1
    2     5     1
    2    11     1
    5     6     1
   20     5     1
    6     7     1
    6     8     1
    9     8     1
    8    13     1
    9    10     1
   11     9     1
   11    12     1
   13    14     1
   13    15     1
   14    16     1
   14    17     1
   14    18     1
   18    19     1
   21    20     1
   22    20     1
   20    23     1
   25    24     1
   24    26     1
   24    27     1
   28    25     1
   35    25     1
   29    28     1
   28    30     1
   29    31     1
   32    29     1
   32    33     1
   40    32     1
   33    34     1
   33    35     1
   35    36     1
   37    36     1
   38    36     1
   36    39     1
   41    40     1
   40    42     1
   41    43     1
   41    44     1
   45    41     1
   45    46     1

[ pairs ]
; ai	aj	funct	c6	c12 or
; ai	aj	funct	fudgeQQ	q1	q2	c6	c12
    1     6     1
    1     9     1
    1    12     1
    1    20     1
    1    28     1
    1    35     1
    2     7     1
    2     8     1
    2    10     1
    2    21     1
    2    22     1
    2    23     1
    2    25     1
    2    26     1
    2    27     1
    3     5     1
    3    11     1
    3    25     1
    3    26     1
    3    27     1
    4     5     1
    4    11     1
    4    25     1
    4    26     1
    4    27     1
    5     9     1
    5    12     1
    5    13     1
    5    24     1
    6    10     1
    6    11     1
    6    14     1
    6    15     1
    6    21     1
    6    22     1
    6    23     1
    7     9     1
    7    13     1
    7    20     1
    8    12     1
    8    16     1
    8    17     1
    8    18     1
    8    20     1
    9    14     1
    9    15     1
   10    12     1
   10    13     1
   11    13     1
   11    20     1
   11    24     1
   13    19     1
   15    16     1
   15    17     1
   15    18     1
   16    19     1
   17    19     1
   24    29     1
   24    30     1
   24    33     1
   24    36     1
   25    31     1
   25    32     1
   25    34     1
   25    37     1
   25    38     1
   25    39     1
   26    28     1
   26    35     1
   27    28     1
   27    35     1
   28    33     1
   28    36     1
   28    40     1
   29    34     1
   29    35     1
   29    41     1
   29    42     1
   30    31     1
   30    32     1
   30    35     1
   31    33     1
   31    40     1
   32    36     1
   32    43     1
   32    44     1
   32    45     1
   33    37     1
   33    38     1
   33    39     1
   33    41     1
   33    42     1
   34    36     1
   34    40     1
   35    40     1
   40    46     1
   42    43     1
   42    44     1
   42    45     1
   43    46     1
   44    46     1

[ angles ] 
; ai	aj	ak	funct	th0	cth	S0	Kub
    2     1     3     5
    2     1     4     5
    2     1    24     5
    3     1     4     5
    3     1    24     5
    4     1    24     5
    1     2     5     5
    1     2    11     5
    5     2    11     5
    2     5     6     5
    2     5    20     5
    6     5    20     5
    5     6     7     5
    5     6     8     5
    7     6     8     5
    6     8     9     5
    6     8    13     5
    9     8    13     5
    8     9    10     5
    8     9    11     5
   10     9    11     5
    2    11     9     5
    2    11    12     5
    9    11    12     5
    8    13    14     5
    8    13    15     5
   14    13    15     5
   13    14    16     5
   13    14    17     5
   13    14    18     5
   16    14    17     5
   16    14    18     5
   17    14    18     5
   14    18    19     5
    5    20    21     5
    5    20    22     5
    5    20    23     5
   21    20    22     5
   21    20    23     5
   22    20    23     5
    1    24    25     5
    1    24    26     5
    1    24    27     5
   25    24    26     5
   25    24    27     5
   26    24    27     5
   24    25    28     5
   24    25    35     5
   28    25    35     5
   25    28    29     5
   25    28    30     5
   29    28    30     5
   28    29    31     5
   28    29    32     5
   31    29    32     5
   29    32    33     5
   29    32    40     5
   33    32    40     5
   32    33    34     5
   32    33    35     5
   34    33    35     5
   25    35    33     5
   25    35    36     5
   33    35    36     5
   35    36    37     5
   35    36    38     5
   35    36    39     5
   37    36    38     5
   37    36    39     5
   38    36    39     5
   32    40    41     5
   32    40    42     5
   41    40    42     5
   40    41    43     5
   40    41    44     5
   40    41    45     5
   43    41    44     5
   43    41    45     5
   44    41    45     5
   41    45    46     5

[ dihedrals ]
; ai	aj	ak	al	funct	phi0	cp	mult
    3     1     2     5     9
    3     1     2    11     9
    4     1     2     5     9
    4     1     2    11     9
    2     1    24    25     9
    2     1    24    26     9
    2     1    24    27     9
    3     1    24    25     9
    3     1    24    26     9
    3     1    24    27     9
    4     1    24    25     9
    4     1    24    26     9
    4     1    24    27     9
    5     2     1    24     9
   11     2     1    24     9
    1     2     5     6     9
    1     2     5    20     9
   11     2     5    20     9
    1     2    11     9     9
    1     2    11    12     9
    5     2    11     9     9
    5     2    11    12     9
    6     5     2    11     9
    2     5     6     7     9
    2     5     6     8     9
    2     5    20    21     9
    2     5    20    22     9
    2     5    20    23     9
    6     5    20    21     9
    6     5    20    22     9
    6     5    20    23     9
    7     6     5    20     9
    8     6     5    20     9
    5     6     8     9     9
    5     6     8    13     9
    7     6     8     9     9
    7     6     8    13     9
    6     8     9    10     9
    6     8     9    11     9
    6     8    13    14     9
    6     8    13    15     9
    9     8    13    14     9
    9     8    13    15     9
   10     9     8    13     9
   11     9     8    13     9
    8     9    11    12     9
   10     9    11    12     9
    2    11     9     8     9
    2    11     9    10     9
    8    13    14    16     9
    8    13    14    17     9
    8    13    14    18     9
   15    13    14    16     9
   15    13    14    17     9
   15    13    14    18     9
   13    14    18    19     9
   16    14    18    19     9
   17    14    18    19     9
    1    24    25    28     9
    1    24    25    35     9
   26    24    25    28     9
   26    24    25    35     9
   27    24    25    28     9
   27    24    25    35     9
   24    25    28    29     9
   24    25    28    30     9
   24    25    35    33     9
   24    25    35    36     9
   28    25    35    33     9
   28    25    35    36     9
   29    28    25    35     9
   30    28    25    35     9
   25    28    29    31     9
   25    28    29    32     9
   30    28    29    31     9
   30    28    29    32     9
   28    29    32    33     9
   28    29    32    40     9
   31    29    32    33     9
   31    29    32    40     9
   29    32    33    34     9
   29    32    33    35     9
   29    32    40    41     9
   29    32    40    42     9
   33    32    40    41     9
   33    32    40    42     9
   34    33    32    40     9
   35    33    32    40     9
   32    33    35    36     9
   34    33    35    36     9
   25    35    33    32     9
   25    35    33    34     9
   25    35    36    37     9
   25    35    36    38     9
   25    35    36    39     9
   33    35    36    37     9
   33    35    36    38     9
   33    35    36    39     9
   32    40    41    43     9
   32    40    41    44     9
   32    40    41    45     9
   42    40    41    43     9
   42    40    41    44     9
   42    40    41    45     9
   40    41    45    46     9
   43    41    45    46     9
   44    41    45    46     9

#ifdef POSRES
[ position_restraints ]
    1     1    POSRES_FC_BB    POSRES_FC_BB    POSRES_FC_BB   
    2     1    POSRES_FC_BB    POSRES_FC_BB    POSRES_FC_BB   
    5     1    POSRES_FC_BB    POSRES_FC_BB    POSRES_FC_BB   
    6     1    POSRES_FC_BB    POSRES_FC_BB    POSRES_FC_BB   
    8     1    POSRES_FC_BB    POSRES_FC_BB    POSRES_FC_BB   
    9     1    POSRES_FC_BB    POSRES_FC_BB    POSRES_FC_BB   
   11     1    POSRES_FC_BB    POSRES_FC_BB    POSRES_FC_BB   
   13     1    POSRES_FC_BB    POSRES_FC_BB    POSRES_FC_BB   
   14     1    POSRES_FC_BB    POSRES_FC_BB    POSRES_FC_BB   
   18     1    POSRES_FC_BB    POSRES_FC_BB    POSRES_FC_BB   
   20     1    POSRES_FC_BB    POSRES_FC_BB    POSRES_FC_BB   
   21     1    POSRES_FC_BB    POSRES_FC_BB    POSRES_FC_BB   
   22     1    POSRES_FC_BB    POSRES_FC_BB    POSRES_FC_BB   
   23     1    POSRES_FC_BB    POSRES_FC_BB    POSRES_FC_BB   
   24     1    POSRES_FC_BB    POSRES_FC_BB    POSRES_FC_BB   
   25     1    POSRES_FC_BB    POSRES_FC_BB    POSRES_FC_BB   
   28     1    POSRES_FC_BB    POSRES_FC_BB    POSRES_FC_BB   
   29     1    POSRES_FC_BB    POSRES_FC_BB    POSRES_FC_BB   
   32     1    POSRES_FC_BB    POSRES_FC_BB    POSRES_FC_BB   
   33     1    POSRES_FC_BB    POSRES_FC_BB    POSRES_FC_BB   
   35     1    POSRES_FC_BB    POSRES_FC_BB    POSRES_FC_BB   
   36     1    POSRES_FC_BB    POSRES_FC_BB    POSRES_FC_BB   
   37     1    POSRES_FC_BB    POSRES_FC_BB    POSRES_FC_BB   
   38     1    POSRES_FC_BB    POSRES_FC_BB    POSRES_FC_BB   
   39     1    POSRES_FC_BB    POSRES_FC_BB    POSRES_FC_BB   
   40     1    POSRES_FC_BB    POSRES_FC_BB    POSRES_FC_BB   
   41     1    POSRES_FC_BB    POSRES_FC_BB    POSRES_FC_BB   
   45     1    POSRES_FC_BB    POSRES_FC_BB    POSRES_FC_BB   
#endif
