;;
;; Generated by CHARMM-GUI FF-Converter
;;
;; Correspondance:
;; jul316@lehigh.edu or wonpil@lehigh.edu
;;
;; GROMACS topology file for CO31
;;


[ moleculetype ]
; name	nrexcl
CO31	     3

[ atoms ]
; nr	type	resnr	residu	atom	cgnr	charge	mass
     1      CG2O6      4     CO31      C      1     0.690000    12.0110   ; qtot  0.690
     2       HGP1      4     CO31     H3      2     0.430000     3.0240   ; qtot  1.120
     3      OG2D2      4     CO31     O1      3    -0.760000    15.9994   ; qtot  0.360
     4      OG2D2      4     CO31     O2      4    -0.760000    15.9994   ; qtot -0.400
     5      OG311      4     CO31     O3      5    -0.600000    13.9834   ; qtot -1.000

[ bonds ]
; ai	aj	funct	b0	Kb
    1     3     1
    1     4     1
    1     5     1
    5     2     1

[ pairs ]
; ai	aj	funct	c6	c12 or
; ai	aj	funct	fudgeQQ	q1	q2	c6	c12
    2     3     1
    2     4     1

[ angles ] 
; ai	aj	ak	funct	th0	cth	S0	Kub
    3     1     4     5
    3     1     5     5
    4     1     5     5
    1     5     2     5

[ dihedrals ]
; ai	aj	ak	al	funct	phi0	cp	mult
    2     5     1     3     9
    2     5     1     4     9

[ dihedrals ]
; ai	aj	ak	al	funct	q0	cq
    1     3     4     5     2

#ifdef POSRES
[ position_restraints ]
    1     1    POSRES_FC_BB    POSRES_FC_BB    POSRES_FC_BB   
    3     1    POSRES_FC_BB    POSRES_FC_BB    POSRES_FC_BB   
    4     1    POSRES_FC_BB    POSRES_FC_BB    POSRES_FC_BB   
    5     1    POSRES_FC_BB    POSRES_FC_BB    POSRES_FC_BB   
#endif
