;;
;; Generated by CHARMM-GUI FF-Converter
;;
;; Correspondance:
;; jul316@lehigh.edu or wonpil@lehigh.edu
;;
;; The main GROMACS topology file
;;

; Include forcefield parameters
#include "toppar/forcefield.itp"
#include "toppar/PROA.itp"
#include "toppar/PROB.itp"
#include "toppar/PROC.itp"
#include "toppar/SOD.itp"
#include "toppar/CO31.itp"
#include "toppar/POPC.itp"
#include "toppar/CLA.itp"
#include "toppar/TIP3.itp"

[ system ]
; Name
QA_SOD_BCT_R1

[ molecules ]
; Compound	#mols
PROA  	           1
PROB  	           1
PROC  	           1
SOD   	         200
CO31  	          14
POPC  	         540
CLA   	         197
TIP3  	       67906
