;;
;; Generated by CHARMM-GUI FF-Converter
;;
;; Correspondance:
;; jul316@lehigh.edu or wonpil@lehigh.edu
;;
;; The main GROMACS topology file
;;

; Include forcefield parameters
#include "toppar/forcefield.itp"
#include "toppar/PROA.itp"
#include "toppar/PROB.itp"
#include "toppar/PROC.itp"
#include "toppar/PROD.itp"
#include "toppar/LIG.itp"
#include "toppar/POPC.itp"
#include "toppar/CO31.itp"
#include "toppar/SOD.itp"
#include "toppar/CLA.itp"
#include "toppar/TIP3.itp"

[ system ]
; Name
Title

[ molecules ]
; Compound	#mols
PROA  	           1
PROB  	           1
PROC  	           1
PROD  	           1
LIG   	           2
POPC  	         541
CO31  	          11
SOD   	         190
CLA   	         189
TIP3  	       65241
